 Gaussian 98, Revision A.11.4,
 Gaussian 98:  x86-Linux-G98RevA.11.4 7-May-2002

 --------------------------------------------------------
 #P hf/6-31G* Opt=(VTight,CalcFC) Freq SCF(Conver=8) Test
 --------------------------------------------------------

 ---------------------------
 Optimization used by R.E.D.
 ---------------------------
 Symbolic Z-matrix:
 Charge =  0 Multiplicity = 1

 SCF Done:  E(RHF) =  -531.889662547     A.U. after   15 cycles

  Exact polarizability:  86.637  -0.634  84.664  -4.137   0.057  76.332
 Approx polarizability:  72.605  -1.235  72.265  -6.060  -0.697  75.503

 SCF Done:  E(RHF) =  -531.889667137     A.U. after    9 cycles
 SCF Done:  E(RHF) =  -531.889667137     A.U. after    2 cycles
 SCF Done:  E(RHF) =  -531.889667138     A.U. after    4 cycles
 SCF Done:  E(RHF) =  -531.889667138     A.U. after    4 cycles
 SCF Done:  E(RHF) =  -531.889667138     A.U. after    3 cycles
 SCF Done:  E(RHF) =  -531.889667138     A.U. after    2 cycles
 SCF Done:  E(RHF) =  -531.889667138     A.U. after    5 cycles
 SCF Done:  E(RHF) =  -531.889667138     A.U. after    5 cycles
 SCF Done:  E(RHF) =  -531.889667138     A.U. after    4 cycles
 SCF Done:  E(RHF) =  -531.889667138     A.U. after    2 cycles
 SCF Done:  E(RHF) =  -531.889667138     A.U. after    2 cycles
 SCF Done:  E(RHF) =  -531.889667138     A.U. after    3 cycles
 SCF Done:  E(RHF) =  -531.889667138     A.U. after    3 cycles
 SCF Done:  E(RHF) =  -531.889666401     A.U. after   10 cycles
 SCF Done:  E(RHF) =  -531.889667135     A.U. after   10 cycles
 SCF Done:  E(RHF) =  -531.889667138     A.U. after    3 cycles
 SCF Done:  E(RHF) =  -531.889667138     A.U. after    3 cycles
 SCF Done:  E(RHF) =  -531.889667138     A.U. after    4 cycles
 SCF Done:  E(RHF) =  -531.889667138     A.U. after    4 cycles
 Optimization completed.
    -- Stationary point found.

                         Standard orientation:
 ---------------------------------------------------------------------
 Center     Atomic     Atomic              Coordinates (Angstroms)
 Number     Number      Type              X           Y           Z
 ---------------------------------------------------------------------
    1          6             0        3.164213   -0.942487   -0.370941
    2          1             0        3.180849   -1.008063   -1.453251
    3          1             0        3.877314   -0.182153   -0.066542
    4          1             0        3.466374   -1.887307    0.056608
    5          6             0        1.793702   -0.578702    0.160502
    6          8             0        1.356980   -1.044552    1.174545
    7          7             0        1.090789    0.303623   -0.604732
    8          1             0        1.583234    0.729459   -1.358031
    9          6             0       -0.094215    1.027093   -0.131617
   10          6             0       -0.553574    1.932854   -1.284846
   11          1             0        0.210513    2.670857   -1.512912
   12          1             0       -0.758709    1.355295   -2.179624
   13          1             0       -1.455922    2.458623   -1.001371
   14          6             0        0.222110    1.873608    1.105707
   15          1             0       -0.650933    2.433115    1.408952
   16          1             0        0.530582    1.250582    1.932827
   17          1             0        1.022615    2.568960    0.869892
   18          6             0       -1.268994    0.078289    0.171729
   19          8             0       -2.126839    0.412279    0.942507
   20          7             0       -1.346272   -1.051261   -0.562266
   21          1             0       -0.518047   -1.359138   -1.013460
   22          6             0       -2.369235   -2.036242   -0.282284
   23          1             0       -2.203184   -2.532579    0.667913
   24          1             0       -3.336654   -1.557458   -0.254508
   25          1             0       -2.364819   -2.775015   -1.073422
 ---------------------------------------------------------------------

 Alpha  occ. eigenvalues --  -20.53545 -20.51349 -15.59535 -15.57213 -11.35880
 Alpha  occ. eigenvalues --  -11.33509 -11.28910 -11.24664 -11.24299 -11.23278
 Alpha  occ. eigenvalues --  -11.20736  -1.40464  -1.38281  -1.25265  -1.21811
 Alpha  occ. eigenvalues --   -1.07688  -1.00390  -0.95280  -0.94760  -0.84889
 Alpha  occ. eigenvalues --   -0.80717  -0.77065  -0.71285  -0.69074  -0.65449
 Alpha  occ. eigenvalues --   -0.62846  -0.62377  -0.62037  -0.59984  -0.59458
 Alpha  occ. eigenvalues --   -0.58297  -0.57227  -0.55857  -0.54271  -0.54073
 Alpha  occ. eigenvalues --   -0.51993  -0.51632  -0.51082  -0.49122  -0.42956
 Alpha  occ. eigenvalues --   -0.42157  -0.38972  -0.37861
 Alpha virt. eigenvalues --    0.18932   0.20085   0.20982   0.24983   0.25291
 Alpha virt. eigenvalues --    0.27921   0.28841   0.29087   0.30037   0.30241
 Alpha virt. eigenvalues --    0.32294   0.32687   0.33018   0.34439   0.35765

 Normal termination of Gaussian 98.
