 Gaussian 98, Revision A.11.4,
 Gaussian 98:  x86-Linux-G98RevA.11.4 7-May-2002

 --------------------------------------------------------
 #P hf/6-31G* Opt=(VTight,CalcFC) Freq SCF(Conver=8) Test
 --------------------------------------------------------

 ---------------------------
 Optimization used by R.E.D.
 ---------------------------
 Symbolic Z-matrix:
 Charge =  0 Multiplicity = 1

 SCF Done:  E(RHF) =  -531.889662547     A.U. after   15 cycles

  Exact polarizability:  86.637  -0.634  84.664  -4.137   0.057  76.332
 Approx polarizability:  72.605  -1.235  72.265  -6.060  -0.697  75.503

 SCF Done:  E(RHF) =  -531.889667137     A.U. after    9 cycles
 SCF Done:  E(RHF) =  -531.889667137     A.U. after    2 cycles
 SCF Done:  E(RHF) =  -531.889667138     A.U. after    4 cycles
 SCF Done:  E(RHF) =  -531.889667138     A.U. after    4 cycles
 SCF Done:  E(RHF) =  -531.889667138     A.U. after    3 cycles
 SCF Done:  E(RHF) =  -531.889667138     A.U. after    2 cycles
 SCF Done:  E(RHF) =  -531.889667138     A.U. after    5 cycles
 SCF Done:  E(RHF) =  -531.889667138     A.U. after    5 cycles
 SCF Done:  E(RHF) =  -531.889667138     A.U. after    4 cycles
 SCF Done:  E(RHF) =  -531.889667138     A.U. after    2 cycles
 SCF Done:  E(RHF) =  -531.889667138     A.U. after    2 cycles
 SCF Done:  E(RHF) =  -531.889667138     A.U. after    3 cycles
 SCF Done:  E(RHF) =  -531.889667138     A.U. after    3 cycles
 SCF Done:  E(RHF) =  -531.889666401     A.U. after   10 cycles
 SCF Done:  E(RHF) =  -531.889667135     A.U. after   10 cycles
 SCF Done:  E(RHF) =  -531.889667138     A.U. after    3 cycles
 SCF Done:  E(RHF) =  -531.889667138     A.U. after    3 cycles
 SCF Done:  E(RHF) =  -531.889667138     A.U. after    4 cycles
 SCF Done:  E(RHF) =  -531.889667138     A.U. after    4 cycles
 Optimization completed.
    -- Stationary point found.

                         Standard orientation:
 ---------------------------------------------------------------------
 Center     Atomic     Atomic              Coordinates (Angstroms)
 Number     Number      Type              X           Y           Z
 ---------------------------------------------------------------------
    1          6             0        3.164213   -0.942487   -0.370941
    2          1             0        3.180849   -1.008063   -1.453251
    3          1             0        3.877314   -0.182153   -0.066542
    4          1             0        3.466374   -1.887307    0.056608
    5          6             0        1.793702   -0.578702    0.160502
    6          8             0        1.356980   -1.044552    1.174545
    7          7             0        1.090789    0.303623   -0.604732
    8          1             0        1.583234    0.729459   -1.358031
    9          6             0       -0.094215    1.027093   -0.131617
   10          6             0       -0.553574    1.932854   -1.284846
   11          1             0        0.210513    2.670857   -1.512912
   12          1             0       -0.758709    1.355295   -2.179624
   13          1             0       -1.455922    2.458623   -1.001371
   14          6             0        0.222110    1.873608    1.105707
   15          1             0       -0.650933    2.433115    1.408952
   16          1             0        0.530582    1.250582    1.932827
   17          1             0        1.022615    2.568960    0.869892
   18          6             0       -1.268994    0.078289    0.171729
   19          8             0       -2.126839    0.412279    0.942507
   20          7             0       -1.346272   -1.051261   -0.562266
   21          1             0       -0.518047   -1.359138   -1.013460
   22          6             0       -2.369235   -2.036242   -0.282284
   23          1             0       -2.203184   -2.532579    0.667913
   24          1             0       -3.336654   -1.557458   -0.254508
   25          1             0       -2.364819   -2.775015   -1.073422
 ---------------------------------------------------------------------

 Alpha  occ. eigenvalues --  -20.53545 -20.51349 -15.59535 -15.57213 -11.35880
 Alpha  occ. eigenvalues --  -11.33509 -11.28910 -11.24664 -11.24299 -11.23278
 Alpha  occ. eigenvalues --  -11.20736  -1.40464  -1.38281  -1.25265  -1.21811
 Alpha  occ. eigenvalues --   -1.07688  -1.00390  -0.95280  -0.94760  -0.84889
 Alpha  occ. eigenvalues --   -0.80717  -0.77065  -0.71285  -0.69074  -0.65449
 Alpha  occ. eigenvalues --   -0.62846  -0.62377  -0.62037  -0.59984  -0.59458
 Alpha  occ. eigenvalues --   -0.58297  -0.57227  -0.55857  -0.54271  -0.54073
 Alpha  occ. eigenvalues --   -0.51993  -0.51632  -0.51082  -0.49122  -0.42956
 Alpha  occ. eigenvalues --   -0.42157  -0.38972  -0.37861
 Alpha virt. eigenvalues --    0.18932   0.20085   0.20982   0.24983   0.25291
 Alpha virt. eigenvalues --    0.27921   0.28841   0.29087   0.30037   0.30241
 Alpha virt. eigenvalues --    0.32294   0.32687   0.33018   0.34439   0.35765

 Normal termination of Gaussian 98.
 Gaussian 98, Revision A.11.4,
 Gaussian 98:  x86-Linux-G98RevA.11.4 7-May-2002

 --------------------------------------------------------
 #P hf/6-31G* Opt=(VTight,CalcFC) Freq SCF(Conver=8) Test
 --------------------------------------------------------

 ---------------------------
 Optimization used by R.E.D.
 ---------------------------
 Symbolic Z-matrix:
 Charge =  0 Multiplicity = 1

 SCF Done:  E(RHF) =  -531.892477599     A.U. after   15 cycles

  Exact polarizability: 100.476  -2.744  83.303  -0.071   0.033  65.453
 Approx polarizability:  76.854  -0.013  81.288  -0.040  -0.055  61.754

 SCF Done:  E(RHF) =  -531.892479919     A.U. after    8 cycles
 SCF Done:  E(RHF) =  -531.892479918     A.U. after    3 cycles
 SCF Done:  E(RHF) =  -531.892479918     A.U. after    4 cycles
 SCF Done:  E(RHF) =  -531.892479918     A.U. after    4 cycles
 SCF Done:  E(RHF) =  -531.892479918     A.U. after    4 cycles
 SCF Done:  E(RHF) =  -531.892479918     A.U. after    3 cycles
 SCF Done:  E(RHF) =  -531.892479918     A.U. after    4 cycles
 SCF Done:  E(RHF) =  -531.892479918     A.U. after    4 cycles
 SCF Done:  E(RHF) =  -531.892479918     A.U. after    4 cycles
 SCF Done:  E(RHF) =  -531.892479918     A.U. after    3 cycles
 SCF Done:  E(RHF) =  -531.892479918     A.U. after    3 cycles
 SCF Done:  E(RHF) =  -531.892479918     A.U. after    3 cycles
 SCF Done:  E(RHF) =  -531.892479918     A.U. after    3 cycles
 SCF Done:  E(RHF) =  -531.892479918     A.U. after    3 cycles
 SCF Done:  E(RHF) =  -531.892479918     A.U. after    3 cycles
 SCF Done:  E(RHF) =  -531.892479918     A.U. after    3 cycles
 SCF Done:  E(RHF) =  -531.892479918     A.U. after    2 cycles
 SCF Done:  E(RHF) =  -531.892479918     A.U. after    4 cycles
 SCF Done:  E(RHF) =  -531.892479918     A.U. after    4 cycles
 Optimization completed.
    -- Stationary point found.

                         Standard orientation:
 ---------------------------------------------------------------------
 Center     Atomic     Atomic              Coordinates (Angstroms)
 Number     Number      Type              X           Y           Z
 ---------------------------------------------------------------------
    1          6             0       -3.284730    1.356451    0.006052
    2          1             0       -2.800197    2.297097   -0.224989
    3          1             0       -4.080786    1.174953   -0.703937
    4          1             0       -3.730455    1.425708    0.992426
    5          6             0       -2.341812    0.170352   -0.012312
    6          8             0       -2.767950   -0.956933   -0.005604
    7          7             0       -1.030520    0.480694   -0.015269
    8          1             0       -0.751938    1.436568   -0.019083
    9          6             0        0.069838   -0.470194    0.000545
   10          6             0        0.040216   -1.352274   -1.260303
   11          1             0       -0.895077   -1.890782   -1.298973
   12          1             0        0.128128   -0.740784   -2.151881
   13          1             0        0.849440   -2.074757   -1.261203
   14          6             0        0.030634   -1.323870    1.280612
   15          1             0        0.841116   -2.044491    1.304567
   16          1             0        0.110222   -0.692408    2.159013
   17          1             0       -0.904109   -1.863104    1.323482
   18          6             0        1.342983    0.400941   -0.003203
   19          8             0        1.289394    1.605151   -0.011329
   20          7             0        2.518217   -0.250889    0.004184
   21          1             0        2.533815   -1.242259    0.009336
   22          6             0        3.776806    0.466569    0.001924
   23          1             0        3.867090    1.086140   -0.880824
   24          1             0        3.861439    1.100916    0.874634
   25          1             0        4.582275   -0.255015    0.010606
 ---------------------------------------------------------------------

 Alpha  occ. eigenvalues --  -20.53683 -20.51218 -15.59579 -15.57407 -11.35474
 Alpha  occ. eigenvalues --  -11.34199 -11.29208 -11.26597 -11.22493 -11.22131
 Alpha  occ. eigenvalues --  -11.22119  -1.40696  -1.38023  -1.24410  -1.23445
 Alpha  occ. eigenvalues --   -1.07477  -0.98963  -0.96299  -0.95037  -0.87150
 Alpha  occ. eigenvalues --   -0.80856  -0.75451  -0.73569  -0.66330  -0.65653
 Alpha  occ. eigenvalues --   -0.64282  -0.62740  -0.62179  -0.59989  -0.58916
 Alpha  occ. eigenvalues --   -0.58605  -0.56587  -0.56199  -0.55909  -0.54635
 Alpha  occ. eigenvalues --   -0.53057  -0.51451  -0.51224  -0.48693  -0.42546
 Alpha  occ. eigenvalues --   -0.40546  -0.40275  -0.38041
 Alpha virt. eigenvalues --    0.19244   0.19927   0.21399   0.24818   0.25652
 Alpha virt. eigenvalues --    0.26952   0.29319   0.30455   0.31054   0.31280
 Alpha virt. eigenvalues --    0.32820   0.33681   0.33884   0.34306   0.35834

 Normal termination of Gaussian 98.
